 Gaussian 16, Revision B.01,
 Gaussian 16:  ES64L-G16RevB.01 20-Dec-2017

 -------------------------
 # pop=nbo ub3lyp/6-31g(d)
 -------------------------

 -------------------
 Title Card Required
 -------------------
 Symbolic Z-matrix:
 Charge =  0 Multiplicity = 2

                         Standard orientation:
 ---------------------------------------------------------------------
 Center     Atomic      Atomic             Coordinates (Angstroms)
 Number     Number       Type             X           Y           Z
 ---------------------------------------------------------------------
      1          1           0        0.000000    0.000000    0.931748
      2          1           0        0.000000    0.000000    0.000000
      3          1           0        0.000000    0.000000   -0.931748
 ---------------------------------------------------------------------

 SCF Done:  E(UB3LYP) =  -1.66874776198     A.U. after    9 cycles

 The electronic state is 2-SGU.
 Alpha  occ. eigenvalues --   -0.51057  -0.25611
 Alpha virt. eigenvalues --    0.15163   0.66750   0.74439   1.01661
  Beta  occ. eigenvalues --   -0.46000
  Beta virt. eigenvalues --   -0.09738   0.18935   0.71429   0.83229   1.05465

 Mulliken charges and spin densities:
               1          2
     1  H    0.048630   0.592431
     2  H   -0.097260  -0.184861
     3  H    0.048630   0.592431
 Sum of Mulliken charges =  -0.00000   1.00000

 Dipole moment (field-independent basis, Debye):
    X=              0.0000    Y=              0.0000    Z=              0.0000  Tot=              0.0000
 Quadrupole moment (field-independent basis, Debye-Ang):
   XX=             -3.2863   YY=             -3.2863   ZZ=             -3.3114
   XY=              0.0000   XZ=              0.0000   YZ=              0.0000

 Summary of Natural Population Analysis:

                                       Natural Population
                Natural  -----------------------------------------------
    Atom  No    Charge         Core      Valence    Rydberg      Total
 -----------------------------------------------------------------------
      H    1    0.30931      0.00000     0.18962    0.00107     0.19069
      H    2   -0.11863      0.00000     0.61853    0.00010     0.61863
      H    3    0.30931      0.00000     0.18962    0.00107     0.19069
 =======================================================================
   * Total *    0.50000      0.00000     0.99776    0.00224     1.00000

 Normal termination of Gaussian 16 at Thu Jul 22 10:38:43 2021.
